<?xml version="1.0" encoding="UTF-8"?>

<!-- generated on Thu Mar  4 13:20:47 2021 by Eclipse SUMO sumo Version 1.8.0
<configuration xmlns:xsi="http://www.w3.org/2001/XMLSchema-instance" xsi:noNamespaceSchemaLocation="http://sumo.dlr.de/xsd/sumoConfiguration.xsd">

    <input>
        <net-file value="/home/dreamlab-student/sumo-iisc/2021-03-04-13-20-05/osm.net.xml"/>
        <route-files value="/home/dreamlab-student/sumo-iisc/2021-03-04-13-20-05/trips.trips.xml"/>
        <additional-files value="/home/dreamlab-student/sumo-iisc/2021-03-04-13-20-05/osm_stops.add.xml"/>
    </input>

    <output>
        <vehroute-output value="/home/dreamlab-student/sumo-iisc/2021-03-04-13-20-05/vehroutes.xml"/>
        <stop-output value="/home/dreamlab-student/sumo-iisc/2021-03-04-13-20-05/stopinfos.xml"/>
    </output>

    <time>
        <begin value="0"/>
    </time>

    <processing>
        <ignore-route-errors value="true"/>
    </processing>

    <routing>
        <device.rerouting.adaptation-interval value="0"/>
    </routing>

    <report>
        <error-log value="/home/dreamlab-student/sumo-iisc/2021-03-04-13-20-05/trips.trips.xml.errorlog"/>
        <no-step-log value="true"/>
    </report>

</configuration>
-->

<routes xmlns:xsi="http://www.w3.org/2001/XMLSchema-instance" xsi:noNamespaceSchemaLocation="http://sumo.dlr.de/xsd/routes_file.xsd">
    <vehicle id="15_bus_406:0" type="pt_bus" depart="65.00" departLane="0" arrival="119.00">
        <route edges="498554151"/>
        <stop busStop="3755675146" duration="30.00"/>
    </vehicle>

    <vehicle id="18_train_Rajdhani_Express:_Delhi_=_Bengaluru:0" type="pt_train" depart="93.00" departLane="0" arrival="178.00">
        <route edges="53861698#0 53861698#1 53861698#2"/>
        <stop busStop="806588789" duration="30.00"/>
    </vehicle>

    <vehicle id="23_bus_340:0" type="pt_bus" depart="125.00" departLane="0" arrival="187.00">
        <route edges="759364436"/>
        <stop busStop="1323690429" duration="30.00"/>
    </vehicle>

    <vehicle id="17_train_Chennai_-_Mysuru_Shatabdi_Express:0" type="pt_train" depart="91.00" departLane="0" arrival="204.00">
        <route edges="53861699#0"/>
        <stop busStop="806588782" duration="30.00"/>
    </vehicle>

    <vehicle id="19_train_Rajdhani_Express:_Bengaluru_=_Delhi:0" type="pt_train" depart="98.00" departLane="0" arrival="222.00">
        <route edges="372083762#0 372083762#1"/>
        <stop busStop="806588796" duration="30.00"/>
    </vehicle>

    <vehicle id="36_bus_104:0" type="pt_bus" depart="160.00" departLane="0" arrival="243.00">
        <route edges="31235676"/>
        <stop busStop="2398074914" duration="30.00"/>
    </vehicle>

    <vehicle id="24_bus_90E:0" type="pt_bus" depart="126.00" departLane="0" arrival="267.00">
        <route edges="580772059 163560246 498550660 402911911 760493329 760493330 454483792#0 454483792#1 36884366 372018380 139141579#0 139141579#1 580771983 36957700#0 36957700#1 36957700#2 363454313"/>
        <stop busStop="2398074914@5598563" duration="30.00"/>
    </vehicle>

    <vehicle id="37_bus_108B:0" type="pt_bus" depart="166.00" departLane="0" arrival="280.00">
        <route edges="31235676"/>
        <stop busStop="2398074914" duration="30.00"/>
    </vehicle>

    <vehicle id="14_bus_55B:0" type="pt_bus" depart="60.00" departLane="0" arrival="297.00">
        <route edges="190144809#0 190144809#2 190144809#4 454013128 172891296 -767326471 -36885143#10 -36885143#9 -36885143#8 -36885143#7 -36885143#6 -36885143#5 -36885143#4 -36885143#3 -36885143#2 -36885143#1 -36885143#0 -525778225#1 -525778225#0 -162581479 -36958313#1 -36958313#0"/>
        <stop busStop="2007574677" duration="30.00"/>
        <stop busStop="-2402196851" duration="30.00"/>
    </vehicle>

    <vehicle id="29_bus_252F:0" type="pt_bus" depart="137.00" departLane="0" arrival="325.00">
        <route edges="372018370#0 372018370#1 139266401 498554152#0 498554152#1 498554152#2 498554151"/>
        <stop busStop="2398074914@6856311" duration="30.00"/>
    </vehicle>

    <vehicle id="16_train_Mysuru_-_Chennai_Shatabdi_Express:0" type="pt_train" depart="66.00" departLane="0" arrival="330.00">
        <route edges="138078005#0 138078005#1 138078005#2 645645104 -431219876#4 -431219876#3 -431219876#2 -431219876#1 -431219876#0 53861699#0 53861699#1 825978827 825978824"/>
        <stop busStop="806588782" duration="30.00"/>
    </vehicle>

    <vehicle id="65_bus_258CC:0" type="pt_bus" depart="323.00" departLane="0" arrival="369.00">
        <route edges="498554151"/>
        <stop busStop="3755675146" duration="30.00"/>
    </vehicle>

    <vehicle id="31_bus_226M:0" type="pt_bus" depart="139.00" departLane="0" arrival="398.00">
        <route edges="36958313#0 36958313#1 162581479 525778225#0 525778225#1 525778226#0 525778226#1 525778226#2 373574994#0 373574994#1 373574994#2 373574994#3 373574994#4 525778223#0 525778223#1 190144809#0 190144809#2 190144809#4 454013128"/>
        <stop busStop="2402160774" duration="30.00"/>
        <stop busStop="1632815594" duration="30.00"/>
    </vehicle>

    <vehicle id="67_bus_251B:0" type="pt_bus" depart="331.00" departLane="0" arrival="407.00">
        <route edges="498554151"/>
        <stop busStop="3755675146" duration="30.00"/>
    </vehicle>

    <vehicle id="69_bus_341C:1" type="pt_bus" depart="336.00" departLane="0" arrival="411.00">
        <route edges="36965408#1"/>
        <stop busStop="6461616259" duration="30.00"/>
    </vehicle>

    <vehicle id="73_bus_404J:0" type="pt_bus" depart="362.00" departLane="0" arrival="412.00">
        <route edges="730432812#3"/>
        <stop busStop="4144224291" duration="30.00"/>
    </vehicle>

    <vehicle id="51_bus_223E:0" type="pt_bus" depart="228.00" departLane="0" arrival="415.00">
        <route edges="454013128 172891296 -767326471 -36885143#10 -36885143#9 -36885143#8 -36885143#7 -36885143#6 -36885143#5 -36885143#4 -36885143#3 -36885143#2 -36885143#1 -36885143#0 525778226#0 525778226#1 525778226#2 23076199#0"/>
        <stop busStop="1632815594" duration="30.00"/>
        <stop busStop="5265674077" duration="30.00"/>
    </vehicle>

    <vehicle id="74_bus_126A:0" type="pt_bus" depart="368.00" departLane="0" arrival="451.00">
        <route edges="730432812#3"/>
        <stop busStop="4144224291" duration="30.00"/>
    </vehicle>

    <vehicle id="55_bus_223D:0" type="pt_bus" depart="266.00" departLane="0" arrival="454.00">
        <route edges="454013128 172891296 -767326471 -36885143#10 -36885143#9 -36885143#8 -36885143#7 -36885143#6 -36885143#5 -36885143#4 -36885143#3 -36885143#2 -36885143#1 -36885143#0 525778226#0 525778226#1 525778226#2 23076199#0"/>
        <stop busStop="1632815594" duration="30.00"/>
        <stop busStop="5265674077" duration="30.00"/>
    </vehicle>

    <vehicle id="9_bus_G4:0" type="pt_bus" depart="47.00" departLane="0" arrival="469.00">
        <route edges="23029716 23029284#0 23029284#1 23029284#3 23029284#4 23029284#5 239572011#0 239572011#1 239441161#0 239441161#1 239441161#2 239441161#3 -28842920#4 -28842920#3 -28842920#2 -28842920#0 -794756247#3 -794756247#2 -794756247#1 -794756247#0 553975952#0 553975952#1 553975952#2 553975952#3 553975952#4 553975952#5"/>
        <stop busStop="1067841650" duration="30.00"/>
        <stop busStop="3406880176" duration="30.00"/>
        <stop busStop="7141213462" duration="30.00"/>
        <stop busStop="7141213460" duration="30.00"/>
        <stop busStop="-7141213458" duration="30.00"/>
    </vehicle>

    <vehicle id="57_bus_77E:0" type="pt_bus" depart="272.00" departLane="0" arrival="478.00">
        <route edges="170931909#0"/>
        <stop busStop="1521343675" duration="30.00"/>
        <stop busStop="1521036512" duration="30.00"/>
        <stop busStop="249084526" duration="30.00"/>
    </vehicle>

    <vehicle id="0_bus_293E:0" type="pt_bus" depart="3.00" departLane="0" arrival="522.00">
        <route edges="760543010 760543009#0 760543009#1 760543009#2 172891297#0 172891297#1 172891297#2 172891297#3 172891297#4 172891297#5 244304928#0 244304928#1 244304928#2 244304928#3 310910082 763284659 37898955#0 37898955#1 37898955#2 461556532 148016888 22893740#0 22893740#1 154340361#0 154340361#1 154340361#2 154340361#3 154340361#4 154340361#5 154340361#6 36882313#0 36882313#1 36882313#2 26283603#0 26283603#1 26283603#2 26283603#3 26283603#4 26283603#5 26283603#6 26283603#7 26283603#8 26283603#9 26283603#10 107215083#0 107215083#1 107215083#2 107215083#4 362900184 359476587"/>
        <stop busStop="7104861407" duration="30.00"/>
        <stop busStop="1739362330" duration="30.00"/>
        <stop busStop="452414811" duration="30.00"/>
        <stop busStop="3741208081" duration="30.00"/>
        <stop busStop="7106320857" duration="30.00"/>
        <stop busStop="4144220197" duration="30.00"/>
    </vehicle>

    <vehicle id="11_bus_290D:0" type="pt_bus" depart="54.00" departLane="0" arrival="523.00">
        <route edges="362206700#0 362206700#1 362206700#2 362206700#3 362206700#4 553253465 553253466#0 553253466#1 764332429 358318632 764332431 147698259 46704070 234946738#0 234946738#1 234946738#2 234946738#3 36907507#0 36907507#1 36907507#2 36907507#3 36907507#4 36907507#5 36907507#6 150808480 150808482#0 150808482#1 150808482#2 150808482#3 28631881#0 28631881#1 402911910 139266401 498554152#0 498554152#1 498554152#2"/>
        <stop busStop="663551443" duration="30.00"/>
        <stop busStop="7142097525" duration="30.00"/>
        <stop busStop="7142097523" duration="30.00"/>
        <stop busStop="3755675146@10603778" duration="30.00"/>
    </vehicle>

    <vehicle id="8_bus_292B:0" type="pt_bus" depart="119.00" departLane="0" arrival="549.00">
        <route edges="580772044 368624554#0 368624554#1 691949961#0 691949961#1 372031016#0 372031016#1 498550660 402911911 760493329 760493330 454483792#0 454483792#1 36884366 372018380 139141579#0 139141579#1 580771983 36957700#0 36957700#1 36957700#2 375950939#0 375950939#1 375950939#2 747187455 36884551#1 251495490 150785556#0 150785556#1 150785556#2 150785556#3 150785556#4 779282846 779282844 764332430 362206701#0 362206701#1 362206701#2 362206701#3 362206701#4 362206701#5 362206701#6 362206701#7 362206701#8"/>
        <stop busStop="3755675146@10591795" duration="30.00"/>
        <stop busStop="5335240458" duration="30.00"/>
        <stop busStop="663551440" duration="30.00"/>
    </vehicle>

    <vehicle id="22_bus_276:0" type="pt_bus" depart="119.00" departLane="0" arrival="552.00">
        <route edges="372018370#0 372018370#1 139266401 31235676"/>
        <stop busStop="2398074914" duration="30.00"/>
    </vehicle>

    <vehicle id="4_bus_111:0" type="pt_bus" depart="17.00" departLane="0" arrival="562.00">
        <route edges="149104364 172891297#0 172891297#1 172891297#2 172891297#3 172891297#4 172891297#5 244304928#0 244304928#1 244304928#2 244304928#3 310910082 763284659 37898955#0 37898955#1 37898955#2 461556532 23076927#0 23076927#1 23076927#2 23076927#3 23076927#4 23076927#5 764332432#2 38684971#0 38684971#1 363477538 160558221#1 160558221#2"/>
        <stop busStop="7131511277@10601097" duration="30.00"/>
        <stop busStop="1739362330" duration="30.00"/>
        <stop busStop="2394042060" duration="30.00"/>
        <stop busStop="249087970" duration="30.00"/>
        <stop busStop="2394043250" duration="30.00"/>
        <stop busStop="7140563294" duration="30.00"/>
    </vehicle>

    <vehicle id="21_subway_Green:0" type="pt_subway" depart="107.00" departLane="0" arrival="572.00">
        <route edges="607901289 -607901289 -607901291 -607901290 -607901286 -607901285 -607901292 607901292 607901285"/>
        <stop busStop="5760198472" duration="30.00"/>
        <stop busStop="-5760198474" duration="30.00"/>
        <stop busStop="-5760198473" duration="30.00"/>
        <stop busStop="-5760198469" duration="30.00"/>
        <stop busStop="5760198468" duration="30.00"/>
    </vehicle>

    <vehicle id="75_bus_TR4A:0" type="pt_bus" depart="365.00" departLane="0" arrival="573.00">
        <route edges="730432812#0 730432812#1 730432812#3 36913434#1 36913434#3 36913434#4 36913434#5 36913434#6 36913434#7 36913434#8 36913434#9"/>
        <stop busStop="4144224291" duration="30.00"/>
        <stop busStop="663573137" duration="30.00"/>
    </vehicle>

    <vehicle id="38_bus_108:0" type="pt_bus" depart="191.00" departLane="0" arrival="582.00">
        <route edges="454013128 172891296 36897684#0 36897684#1 760543009#0 760543009#1 760543009#2 172891297#0 172891297#1 172891297#2 172891297#3 172891297#4 172891297#5 244304928#0 244304928#1 244304928#2 244304928#3 310910082 763284659 37898955#0 37898955#1 37898955#2 461556532 23076927#0 23076927#1 23076927#2 23076927#3 23076927#4 23076927#5"/>
        <stop busStop="1632815594" duration="30.00"/>
        <stop busStop="1739362330" duration="30.00"/>
        <stop busStop="2394042060" duration="30.00"/>
        <stop busStop="249087970" duration="30.00"/>
    </vehicle>

    <vehicle id="27_bus_78A:0" type="pt_bus" depart="132.00" departLane="0" arrival="589.00">
        <route edges="372018370#0 372018370#1 139266401 31235676"/>
        <stop busStop="2398074914" duration="30.00"/>
    </vehicle>

    <vehicle id="34_subway_Green:1" type="pt_subway" depart="158.00" departLane="0" arrival="591.00">
        <route edges="568709017#0 568709017#1 549256482 343203596 549256481 549256480#0 549256480#1 549256479"/>
        <stop busStop="5464787094" duration="30.00"/>
        <stop busStop="1548300484" duration="30.00"/>
        <stop busStop="1524381523" duration="30.00"/>
        <stop busStop="1524381509" duration="30.00"/>
        <stop busStop="1437223296" duration="30.00"/>
    </vehicle>

    <vehicle id="63_bus_169:0" type="pt_bus" depart="321.00" departLane="0" arrival="594.00">
        <route edges="23515741#0 23515741#1 107215079#0 107215079#1 107215079#3 544761381#0 544761381#1 544761383#1 542070644#0 542070644#1 542070644#2 542070644#3 72099282 172903814#0 172903814#1 172903814#2"/>
        <stop busStop="3740957800" duration="30.00"/>
        <stop busStop="7108562603" duration="30.00"/>
        <stop busStop="2268440721" duration="30.00"/>
    </vehicle>

    <vehicle id="117_bus_G3A:0" type="pt_bus" depart="582.00" departLane="0" arrival="632.00">
        <route edges="763290548#2"/>
        <stop busStop="6584009983" duration="30.00"/>
    </vehicle>

    <vehicle id="6_bus_293C:0" type="pt_bus" depart="53.00" departLane="0" arrival="644.00">
        <route edges="149104364 172891297#0 172891297#1 172891297#2 172891297#3 172891297#4 172891297#5 244304928#0 244304928#1 244304928#2 244304928#3 310910082 763284659 37898955#0 37898955#1 37898955#2 461556532 23076927#0 23076927#1 23076927#2 23076927#3 23076927#4 23076927#5 -133867982#3 -133867982#2 -133867982#1 -133867982#0 391160931 358318632 391160980 764332430 362206701#0 362206701#1 362206701#2 362206701#3 362206701#4 362206701#5 362206701#6 362206701#7 362206701#8"/>
        <stop busStop="7131511277@10601097" duration="30.00"/>
        <stop busStop="1739362330" duration="30.00"/>
        <stop busStop="2394042060" duration="30.00"/>
        <stop busStop="249087970" duration="30.00"/>
        <stop busStop="-7140581379" duration="30.00"/>
        <stop busStop="663551440" duration="30.00"/>
    </vehicle>

    <vehicle id="7_bus_292:0" type="pt_bus" depart="76.00" departLane="0" arrival="645.00">
        <route edges="760543010 760543009#0 760543009#1 760543009#2 172891297#0 172891297#1 172891297#2 172891297#3 172891297#4 172891297#5 244304928#0 244304928#1 244304928#2 244304928#3 310910082 763284659 37898955#0 37898955#1 37898955#2 461556532 148016888 22893740#0 22893740#1 154340361#0 154340361#1 154340361#2 154340361#3 154340361#4 154340361#5 154340361#6 36882313#0 36882313#1 36882313#2 26283603#0 26283603#1 26283603#2 26283603#3 26283603#4 26283603#5 26283603#6 26283603#7 26283603#8 26283603#9 26283603#10 107215083#0 107215083#1 107215083#2 107215083#4 362900184 359476587"/>
        <stop busStop="7104861407" duration="30.00"/>
        <stop busStop="1739362330" duration="30.00"/>
        <stop busStop="452414811" duration="30.00"/>
        <stop busStop="3741208081" duration="30.00"/>
        <stop busStop="7106320857" duration="30.00"/>
        <stop busStop="4144220197" duration="30.00"/>
    </vehicle>

    <vehicle id="32_bus_226J:0" type="pt_bus" depart="147.00" departLane="0" arrival="647.00">
        <route edges="31235676 580772059 163560246 498550660 402911911 544755517 150808476#0 150808476#1 150808476#2 150808476#3 150808476#4 36897658#0 36897658#1 36897658#2 36897658#3 36897658#5 36897658#7 36897658#8 36897658#9 36897658#10 36897658#11 36897658#13 36897658#14 36897658#15 36897658#16 36897658#17 36897685#0 36897685#1 36897685#3 36897685#4 36897685#5 36897685#6 36897685#7 36897685#8 525778226#0 525778226#1 525778226#2 23076199#0 23076199#1 23076199#2 23076199#3 23076199#4 23076199#5 23076199#6"/>
        <stop busStop="2398074914" duration="30.00"/>
        <stop busStop="2393966538" duration="30.00"/>
        <stop busStop="2402160774" duration="30.00"/>
    </vehicle>

    <vehicle id="118_bus_201N:0" type="pt_bus" depart="588.00" departLane="0" arrival="670.00">
        <route edges="763290548#2"/>
        <stop busStop="6584009983" duration="30.00"/>
    </vehicle>

    <vehicle id="10_bus_294B:0" type="pt_bus" depart="155.00" departLane="0" arrival="674.00">
        <route edges="580772044 368624554#0 368624554#1 691949961#0 691949961#1 372031016#0 372031016#1 498550660 402911911 760493329 760493330 454483792#0 454483792#1 36884366 372018380 139141579#0 139141579#1 580771983 36957700#0 36957700#1 36957700#2 375950939#0 375950939#1 375950939#2 747187455 36884551#1 251495490 150785556#0 150785556#1 150785556#2 150785556#3 150785556#4 779282846 779282844 764332430 362206701#0 362206701#1 362206701#2 362206701#3 362206701#4 362206701#5 362206701#6 362206701#7 362206701#8"/>
        <stop busStop="3755675146@10591795" duration="30.00"/>
        <stop busStop="5335240458" duration="30.00"/>
        <stop busStop="663551440" duration="30.00"/>
    </vehicle>

    <vehicle id="12_bus_290B:0" type="pt_bus" depart="190.00" departLane="0" arrival="697.00">
        <route edges="580772044 368624554#0 368624554#1 691949961#0 691949961#1 372031016#0 372031016#1 498550660 402911911 760493329 760493330 454483792#0 454483792#1 36884366 372018380 139141579#0 139141579#1 580771983 36957700#0 36957700#1 36957700#2 375950939#0 375950939#1 375950939#2 747187455 36884551#1 251495490 150785556#0 150785556#1 150785556#2 150785556#3 150785556#4 779282846 779282844 764332430 362206701#0 362206701#1 362206701#2 362206701#3 362206701#4 362206701#5 362206701#6 362206701#7 362206701#8"/>
        <stop busStop="3755675146@10591795" duration="30.00"/>
        <stop busStop="5335240458" duration="30.00"/>
        <stop busStop="663551440" duration="30.00"/>
    </vehicle>

    <vehicle id="42_bus_G2:0" type="pt_bus" depart="179.00" departLane="0" arrival="698.00">
        <route edges="327639080 635340513 325833350#0 325833350#1 325833350#2 325833350#4 27007398#0 27007398#1 27007398#3 27007398#4 28137491#1 28137491#2 764329017#0 764329017#1 764329017#2 401908499#0 401908499#1 763175333#0 763175333#1 763175333#2 763175333#3 763175333#4 763175333#5 38772795#0 38772795#1 38772795#2 38772795#4 38772795#5 38772795#6 38772795#7 38772795#9 38772795#10 38772795#11 462585138#1 764329016 462585137 8680571#0 8680571#1 8680571#3 8680571#4 8680571#5 8680571#6 8680571#7"/>
        <stop busStop="2406087671" duration="30.00"/>
        <stop busStop="2406115674" duration="30.00"/>
        <stop busStop="5772182583" duration="30.00"/>
        <stop busStop="5803875104" duration="30.00"/>
    </vehicle>

    <vehicle id="119_bus_201K:0" type="pt_bus" depart="624.00" departLane="0" arrival="707.00">
        <route edges="763290548#2"/>
        <stop busStop="6584009983" duration="30.00"/>
    </vehicle>

    <vehicle id="1_bus_286A:0" type="pt_bus" depart="39.00" departLane="0" arrival="738.00">
        <route edges="760543010 760543009#0 760543009#1 760543009#2 172891297#0 172891297#1 172891297#2 172891297#3 172891297#4 172891297#5 244304928#0 244304928#1 244304928#2 244304928#3 310910082 763284659 37898955#0 37898955#1 37898955#2 461556532 23076927#0 23076927#1 23076927#2 23076927#3 23076927#4 23076927#5 764332432#2 36907507#0 36907507#1 36907507#2 36907507#3 36907507#4 36907507#5 36907507#6 150808480 150808482#0 150808482#1 150808482#2 150808482#3 28631881#0 28631881#1 402911910 139266401 498554152#0 498554152#1 498554152#2 498554151 580772044 368624554#0 368624554#1 691949961#0 691949961#1 372031016#0 372031016#1 498550660 402911911 760493329 760493330 454483792#0 454483792#1 36884366 372018380 139141579#0 139141579#1 580771983 31235670 760543008 36884553"/>
        <stop busStop="7104861407" duration="30.00"/>
        <stop busStop="1739362330" duration="30.00"/>
        <stop busStop="2394042060" duration="30.00"/>
        <stop busStop="249087970" duration="30.00"/>
        <stop busStop="3755675146" duration="30.00"/>
    </vehicle>

    <vehicle id="120_bus_201:0" type="pt_bus" depart="662.00" departLane="0" arrival="745.00">
        <route edges="763290548#2"/>
        <stop busStop="6584009983" duration="30.00"/>
    </vehicle>

    <vehicle id="56_bus_89C:0" type="pt_bus" depart="449.00" departLane="0" arrival="747.00">
        <route edges="31235676"/>
        <stop busStop="2398074914" duration="30.00"/>
    </vehicle>

    <vehicle id="39_bus_218A:0" type="pt_bus" depart="172.00" departLane="0" arrival="760.00">
        <route edges="31235676 580772059 163560246 498550660 402911911 544755517 150808476#0 150808476#1 150808476#2 150808476#3 150808476#4 36897658#0 36897658#1 36897658#2 36897658#3 36897658#5 36897658#7 36897658#8 36897658#9 36897658#10 36897658#11 36897658#13 36897658#14 36897658#15 36897658#16 36897658#17 36897685#0 36897685#1 36897685#3 36897685#4 36897685#5 36897685#6 36897685#7 36897685#8 525778226#0 525778226#1 525778226#2 23076199#0 23076199#1 23076199#2 23076199#3 23076199#4 23076199#5 23076199#6"/>
        <stop busStop="2398074914" duration="30.00"/>
        <stop busStop="2393966538" duration="30.00"/>
        <stop busStop="2402160774" duration="30.00"/>
    </vehicle>

    <vehicle id="35_bus_102:0" type="pt_bus" depart="158.00" departLane="0" arrival="768.00">
        <route edges="454013128 172891296 36897684#0 36897684#1 760543009#0 760543009#1 760543009#2 172891297#0 172891297#1 172891297#2 172891297#3 172891297#4 172891297#5 244304928#0 244304928#1 244304928#2 244304928#3 310910082 763284659 37898955#0 37898955#1 37898955#2 461556532 23076927#0 23076927#1 23076927#2 23076927#3 23076927#4 23076927#5 764332432#2 38684971#0 38684971#1 363477538 160558221#1 208827396#2 208827396#3 208827396#3-AddedOffRampEdge 208827400 150785556#3 150785556#4 779282846 779282844 764332430 362206701#0 362206701#1 362206701#2 362206701#3 362206701#4 362206700#3"/>
        <stop busStop="1632815594" duration="30.00"/>
        <stop busStop="1739362330" duration="30.00"/>
        <stop busStop="2394042060" duration="30.00"/>
        <stop busStop="249087970" duration="30.00"/>
        <stop busStop="5335240458" duration="30.00"/>
        <stop busStop="663551443" duration="30.00"/>
    </vehicle>

    <vehicle id="25_bus_KBS3A:0" type="pt_bus" depart="131.00" departLane="0" arrival="771.00">
        <route edges="766406231 375964869 375964865 639010022#1 639010022#2 375964867#1 375964867#2 36897703#0 36897703#1 763282652 36965407 152462760 375964868#0 375964868#1 375964868#2 375964868#3 224618934#0 224618934#1 224618934#2 224618934#3 224618934#4 224618934#5 224618934#7 224618934#8 224618934#9 224618934#10 224618934#11 148016866#0 148016866#1 148016873#0 148016873#1 461556532 23076927#0 23076927#1 23076927#2 23076927#3 23076927#4 23076927#5 764332432#2 36907507#0 36907507#1 36907507#2 36907507#3 36907507#4 36907507#5 36907507#6 150808480 150808482#0 150808482#1 150808482#2 150808482#3 28631881#0 28631881#1 402911910"/>
        <stop busStop="2396890811" duration="30.00"/>
        <stop busStop="597363270" duration="30.00"/>
        <stop busStop="2393695722" duration="30.00"/>
        <stop busStop="2394042060" duration="30.00"/>
        <stop busStop="249087970" duration="30.00"/>
    </vehicle>

    <vehicle id="80_bus_342WA:0" type="pt_bus" depart="393.00" departLane="0" arrival="777.00">
        <route edges="730432812#0 730432812#1 730432812#3 36913434#1 36913434#3 36913434#4 36913434#5 36913434#6 36913434#7 36913434#8 36913434#9"/>
        <stop busStop="4144224291" duration="30.00"/>
        <stop busStop="663573137" duration="30.00"/>
    </vehicle>

    <vehicle id="58_bus_96G:0" type="pt_bus" depart="487.00" departLane="0" arrival="786.00">
        <route edges="31235676"/>
        <stop busStop="2398074914" duration="30.00"/>
    </vehicle>

    <vehicle id="41_bus_222A:0" type="pt_bus" depart="184.00" departLane="0" arrival="797.00">
        <route edges="31235676 580772059 163560246 498550660 402911911 544755517 150808476#0 150808476#1 150808476#2 150808476#3 150808476#4 36897658#0 36897658#1 36897658#2 36897658#3 36897658#5 36897658#7 36897658#8 36897658#9 36897658#10 36897658#11 36897658#13 36897658#14 36897658#15 36897658#16 36897658#17 36897685#0 36897685#1 36897685#3 36897685#4 36897685#5 36897685#6 36897685#7 36897685#8 525778226#0 525778226#1 525778226#2 23076199#0"/>
        <stop busStop="2398074914" duration="30.00"/>
        <stop busStop="2393966538" duration="30.00"/>
        <stop busStop="5265674077" duration="30.00"/>
    </vehicle>

    <vehicle id="40_bus_218:0" type="pt_bus" depart="178.00" departLane="0" arrival="799.00">
        <route edges="31235676 580772059 163560246 498550660 402911911 544755517 150808476#0 150808476#1 150808476#2 150808476#3 150808476#4 36897658#0 36897658#1 36897658#2 36897658#3 36897658#5 36897658#7 36897658#8 36897658#9 36897658#10 36897658#11 36897658#13 36897658#14 36897658#15 36897658#16 36897658#17 36897685#0 36897685#1 36897685#3 36897685#4 36897685#5 36897685#6 36897685#7 36897685#8 525778226#0 525778226#1 525778226#2 23076199#0 23076199#1 23076199#2 23076199#3 23076199#4 23076199#5 23076199#6"/>
        <stop busStop="2398074914" duration="30.00"/>
        <stop busStop="2393966538" duration="30.00"/>
        <stop busStop="2402160774" duration="30.00"/>
    </vehicle>

    <vehicle id="68_bus_341C:0" type="pt_bus" depart="334.00" departLane="0" arrival="799.00">
        <route edges="639010018#0 639010018#1 639010018#2 639010018#3 639010018#4 639010018#5 145409123#0 145409123#1 145409123#2 145409123#3 36853145#0 36853145#1 36853145#2 23078145#0 169453737#0 169453737#1 169453737#3 169453737#4 169453737#5 169453737#6 169453737#7 169453737#8 169453737#9 169453737#10 169453737#11 23036323#0 23036323#1 23036323#2 462585115#0 462585115#1 462585115#2 462585115#3 763175324 143368260#0 143368260#1 688824223#0 688824223#1 688824223#2 688824223#3 23081608#0 23081608#1 23081608#2 763175323#0 763175323#1 763175323#2 150357930#0 150357930#1 150357930#2 -688883747#0"/>
        <stop busStop="4349257795" duration="30.00"/>
        <stop busStop="6460998309" duration="30.00"/>
        <stop busStop="1568922532" duration="30.00"/>
        <stop busStop="6460998320" duration="30.00"/>
    </vehicle>

    <vehicle id="30_bus_K1:0" type="pt_bus" depart="137.00" departLane="0" arrival="814.00">
        <route edges="464465186#0 464465186#2 464465186#3 464465186#4 464465186#5 464465186#6 464465186#7 464465186#8 464465186#9 464465186#10 464465186#11 464465186#12 464465186#13 464465186#14 464465205#0 464465205#1 464465205#2 464465205#3 464465205#4 464465205#5 464465205#6 464465205#8 464465205#9 464465205#10 38522161#1 328349209#1 328349209#2 328349209#3 395151747#0 395151747#1 395151747#2 395151747#3 395151747#4 484510041#1 484510041#2 484510041#5 72099280#0 72099280#1 72099280#2 72099280#3 72099280#4 328758433#0 328758433#1 328758433#3 544761382#1 544761382#2 544761380#0 544761378 542070647#1 542070647#3 763290544#0 763290544#1 763290544#2 763290544#3"/>
        <stop busStop="2401658294" duration="30.00"/>
        <stop busStop="2401658592" duration="30.00"/>
        <stop busStop="4595656669" duration="30.00"/>
        <stop busStop="2949043344" duration="30.00"/>
        <stop busStop="287905435" duration="30.00"/>
        <stop busStop="3304155383" duration="30.00"/>
        <stop busStop="2405357303" duration="30.00"/>
    </vehicle>

    <vehicle id="79_bus_368:0" type="pt_bus" depart="387.00" departLane="0" arrival="837.00">
        <route edges="730432812#0 730432812#1 730432812#3 36913434#1 36913434#3 36913434#4 36913434#5 36913434#6 36913434#7 36913434#8 36913434#9 403473952#0 403473952#1 36851759#0 36851759#1"/>
        <stop busStop="4144224291" duration="30.00"/>
        <stop busStop="663573137" duration="30.00"/>
        <stop busStop="2468903219" duration="30.00"/>
    </vehicle>

    <vehicle id="121_bus_335M:0" type="pt_bus" depart="598.00" departLane="0" arrival="839.00">
        <route edges="36851759#0 36851759#1 36852351#0 36852351#1 36852351#2 91894181#0 91894181#1 627144178#0"/>
        <stop busStop="2468903219" duration="30.00"/>
        <stop busStop="6834406252" duration="30.00"/>
    </vehicle>

    <vehicle id="20_subway_Purple:0" type="pt_subway" depart="102.00" departLane="0" arrival="853.00">
        <route edges="549187829 549187830 549187831 549187832 508711042 549187834#1 44829220 549187836 549277222#0 549277222#1 133867981 549187839"/>
        <stop busStop="850782880" duration="30.00"/>
        <stop busStop="431524247" duration="30.00"/>
        <stop busStop="428847118" duration="30.00"/>
        <stop busStop="850782876" duration="30.00"/>
        <stop busStop="4676553346" duration="30.00"/>
        <stop busStop="568344479" duration="30.00"/>
        <stop busStop="1087823607" duration="30.00"/>